80
Lattice='100.0 0.0 0.0 0.0 100.0 0.0 0.0 0.0 100.0' Properties=species:S:1:pos:R:3 Timestep:=T pbc=F F F 1229=T Atoms.=T
C 54.1575 45.6565 50.913
C 55.5765 45.3875 50.524
C 51.5625 50.6235 49.635
C 60.0525 51.5645 47.683
C 52.2825 51.5985 49.065
C 60.0195 50.1565 48.212
C 53.5695 46.8475 50.736
C 56.2965 46.5955 49.99
C 58.8435 52.1465 47.697
C 52.1845 49.3485 50.139
C 54.4265 52.5495 48.36
C 55.7975 52.4695 48.149
C 57.9135 48.9105 49.061
C 53.7295 51.4645 48.895
C 58.5655 50.0125 48.541
C 57.8785 51.1885 48.234
C 54.2945 47.9665 50.12
C 55.7375 47.8135 49.808
C 53.6615 49.1375 49.843
C 56.5025 51.2945 48.452
C 56.5235 48.9705 49.281
C 54.4115 50.2755 49.231
C 55.8075 50.1705 48.994
C 40.6925 46.4275 48.227
C 44.3465 54.3305 50.165
C 47.3305 50.5555 51.045
C 40.0665 47.6965 48.106
C 45.5695 53.8175 50.599
C 47.0515 51.9305 51.047
C 42.0165 46.2865 48.693
C 43.3415 53.4715 49.727
C 46.3465 49.6655 50.6
C 40.2515 50.2735 48.395
C 41.2575 51.3595 48.837
C 44.0895 47.6965 49.57
C 45.8175 52.4355 50.6
C 40.7625 48.8485 48.453
C 42.7005 47.4295 49.037
C 43.5545 52.0895 49.715
C 45.1085 50.1405 50.155
C 42.5205 51.1115 49.268
C 44.0715 49.2145 49.687
C 42.0505 48.6495 48.902
C 44.8165 51.5465 50.15
C 42.8985 49.7295 49.298
C 50.0685 50.7225 49.79
O 49.7685 50.8125 51.181
C 48.6435 50.0285 51.573
H 53.5985 44.8415 51.364
H 55.5975 44.5955 49.766
H 56.1185 45.0175 51.403
H 60.9565 52.0415 47.331
H 51.8095 52.5105 48.713
H 60.6445 50.0565 49.104
H 60.3255 49.4415 47.441
H 52.5405 46.9695 51.056
H 57.3355 46.3975 49.757
H 58.6105 53.1465 47.37
H 52.0375 49.3105 51.227
H 51.6205 48.5215 49.688
H 53.9095 53.4715 48.103
H 56.3085 53.3345 47.735
H 58.4995 48.0275 49.284
H 40.1305 45.5375 47.949
H 44.1785 55.4045 50.17
H 39.0435 47.7575 47.745
H 46.3355 54.5115 50.939
H 47.8165 52.6185 51.406
H 42.4725 45.3055 48.777
H 42.3995 53.8995 49.402
H 46.5465 48.5975 50.609
H 39.3685 50.3525 49.04
H 39.9485 50.4945 47.364
H 40.8775 52.3735 48.782
H 44.2285 47.2245 50.548
H 44.8505 47.3605 48.859
H 49.6715 51.6175 49.297
H 49.5985 49.8495 49.319
H 48.8095 48.9855 51.278
H 48.5995 50.0495 52.669
80
Lattice='100.0 0.0 0.0 0.0 100.0 0.0 0.0 0.0 100.0' Properties=species:S:1:pos:R:3 Timestep:=T pbc=F F F 1229=T Atoms.=T
C 54.1316 45.6579 50.9216
C 55.5884 45.3737 50.5237
C 51.5902 50.6275 49.628
C 60.0695 51.5898 47.6703
C 52.2868 51.6089 49.0595
C 60.043 50.1357 48.2151
C 53.5676 46.8484 50.7364
C 56.3126 46.6045 49.9833
C 58.8386 52.1592 47.6932
C 52.1987 49.3352 50.1417
C 54.4372 52.5681 48.3511
C 55.7848 52.4879 48.1444
C 57.9357 48.9014 49.0606
C 53.6998 51.4893 48.8904
C 58.549 50.0006 48.5486
C 57.892 51.1945 48.2293
C 54.2954 47.9598 50.1226
C 55.7304 47.8055 49.8117
C 53.6531 49.1498 49.8405
C 56.4982 51.3117 48.4466
C 56.5236 48.9461 49.2895
C 54.3831 50.2358 49.2528
C 55.8167 50.1727 48.9915
C 40.6816 46.4266 48.2229
C 44.3538 54.3365 50.1681
C 47.3116 50.5697 51.0383
C 40.0549 47.6734 48.1
C 45.5679 53.8346 50.5995
C 47.0657 51.9256 51.0514
C 42.0072 46.2605 48.6875
C 43.3306 53.5083 49.7254
C 46.3731 49.6519 50.6096
C 40.2475 50.3091 48.3965
C 41.2301 51.3652 48.8276
C 44.131 47.6555 49.582
C 45.8358 52.4473 50.6079
C 40.7656 48.8382 48.4531
C 42.6766 47.4183 49.0272
C 43.5488 52.0995 49.7134
C 45.123 50.1319 50.1596
C 42.4931 51.1084 49.2579
C 44.0973 49.2296 49.6975
C 42.0475 48.659 48.9016
C 44.83 51.552 50.1553
C 42.8676 49.722 49.286
C 50.0503 50.7229 49.7351
O 49.7925 50.8441 51.2299
C 48.6232 49.9947 51.5935
H 53.5991 44.8439 51.363
H 55.5992 44.5924 49.7669
H 56.1199 45.0139 51.4027
H 60.9552 52.0418 47.3312
H 51.8097 52.5104 48.7133
H 60.6486 50.0533 49.1038
H 60.3298 49.4388 47.442
H 52.5412 46.9701 51.0551
H 57.3343 46.4001 49.7568
H 58.6109 53.1475 47.3695
H 52.0364 49.3067 51.2273
H 51.6202 48.5185 49.6917
H 53.9097 53.4697 48.1036
H 56.3085 53.3332 47.7355
H 58.4984 48.0249 49.2849
H 40.1316 45.5391 47.9496
H 44.1786 55.4031 50.17
H 39.0437 47.757 47.745
H 46.3342 54.5096 50.9384
H 47.8143 52.6173 51.405
H 42.4724 45.3046 48.7769
H 42.3988 53.8997 49.4017
H 46.5469 48.5977 50.6091
H 39.365 50.3544 49.0385
H 39.9448 50.4962 47.3635
H 40.8786 52.3724 48.7823
H 44.2331 47.2201 50.5498
H 44.8555 47.3562 48.8599
H 49.6701 51.6189 49.2944
H 49.5946 49.8483 49.319
H 48.8082 48.984 51.2778
H 48.6 50.0483 52.6707
80
Lattice='100.0 0.0 0.0 0.0 100.0 0.0 0.0 0.0 100.0' Properties=species:S:1:pos:R:3 Timestep:=T pbc=F F F 1229=T Atoms.=T
C 54.1175 45.6517 50.9287
C 55.5954 45.3674 50.5231
C 51.5889 50.6245 49.6264
C 60.0807 51.6023 47.6636
C 52.2855 51.6203 49.0548
C 60.0723 50.1294 48.2116
C 53.556 46.8434 50.7421
C 56.3289 46.5997 49.9804
C 58.8399 52.1704 47.6889
C 52.1929 49.3328 50.1444
C 54.4347 52.5808 48.3467
C 55.778 52.5126 48.1365
C 57.9318 48.8839 49.0678
C 53.696 51.4883 48.8914
C 58.5336 49.9924 48.5547
C 57.9007 51.2046 48.2241
C 54.2966 47.948 50.1271
C 55.7422 47.8088 49.8077
C 53.6531 49.1808 49.8289
C 56.4987 51.3235 48.4423
C 56.5287 48.9332 49.2931
C 54.3659 50.2241 49.2614
C 55.8065 50.1557 48.9997
C 40.6715 46.4197 48.2186
C 44.3601 54.3468 50.1711
C 47.3016 50.5753 51.035
C 40.0412 47.6525 48.0934
C 45.5712 53.8492 50.6018
C 47.0803 51.9304 51.0565
C 42.0002 46.2412 48.6833
C 43.3209 53.5127 49.7221
C 46.3838 49.6394 50.613
C 40.235 50.3361 48.3943
C 41.2072 51.3809 48.8206
C 44.1435 47.6551 49.5866
C 45.8584 52.4669 50.6179
C 40.7565 48.8305 48.4489
C 42.6795 47.4063 49.0273
C 43.5383 52.1131 49.7104
C 45.1261 50.1018 50.1582
C 42.4871 51.1242 49.2568
C 44.1202 49.2254 49.7056
C 42.0565 48.6625 48.905
C 44.8184 51.5568 50.151
C 42.8658 49.7111 49.2844
C 50.058 50.7246 49.7219
O 49.797 50.8528 51.2459
C 48.6274 49.985 51.603
H 53.5982 44.8453 51.3628
H 55.6011 44.5884 49.7673
H 56.1218 45.0097 51.4029
H 60.9557 52.0443 47.3302
H 51.8085 52.5105 48.7136
H 60.6542 50.049 49.1046
H 60.3354 49.4344 47.4425
H 52.5409 46.9709 51.0544
H 57.335 46.4032 49.7559
H 58.6103 53.1502 47.3686
H 52.034 49.3032 51.2278
H 51.6184 48.5159 49.6956
H 53.9095 53.4696 48.1035
H 56.3089 53.3336 47.7353
H 58.4985 48.0211 49.286
H 40.1321 45.5402 47.9499
H 44.1791 55.4027 50.1703
H 39.0424 47.7556 47.7443
H 46.3332 54.5087 50.938
H 47.8132 52.6159 51.4045
H 42.4726 45.3017 48.7767
H 42.3966 53.9011 49.4009
H 46.5486 48.5969 50.6097
H 39.3602 50.3573 49.037
H 39.94 50.4991 47.3621
H 40.8788 52.3736 48.7824
H 44.2395 47.2146 50.552
H 44.8621 47.3507 48.8616
H 49.6678 51.6205 49.2903
H 49.59 49.8472 49.318
H 48.8068 48.9809 51.2778
H 48.6004 50.046 52.6736
80
Lattice='100.0 0.0 0.0 0.0 100.0 0.0 0.0 0.0 100.0' Properties=species:S:1:pos:R:3 Timestep:=T pbc=F F F 1229=T Atoms.=T
C 54.1199 45.6372 50.9331
C 55.5941 45.374 50.522
C 51.5656 50.6201 49.6255
C 60.0884 51.5919 47.6659
C 52.2797 51.635 49.0496
C 60.0892 50.1489 48.2009
C 53.546 46.8517 50.743
C 56.3421 46.5794 49.9829
C 58.8529 52.1851 47.681
C 52.1756 49.3332 50.1485
C 54.4255 52.5939 48.3433
C 55.7727 52.5411 48.1268
C 57.9244 48.8571 49.0791
C 53.6976 51.4926 48.8897
C 58.5396 49.984 48.5568
C 57.9084 51.2178 48.2178
C 54.3006 47.9359 50.1314
C 55.7362 47.8097 49.8089
C 53.6558 49.1825 49.8276
C 56.4826 51.3221 48.446
C 56.525 48.9393 49.2918
C 54.3729 50.2276 49.2593
C 55.8014 50.1357 49.008
C 40.6605 46.403 48.213
C 44.3622 54.3611 50.1728
C 47.3026 50.5706 51.0362
C 40.035 47.6565 48.0916
C 45.5795 53.8675 50.6062
C 47.0997 51.9436 51.0635
C 41.9941 46.2241 48.6797
C 43.3127 53.5061 49.7187
C 46.3852 49.6259 50.6123
C 40.2189 50.3352 48.3884
C 41.1989 51.4083 48.8196
C 44.139 47.6768 49.5868
C 45.861 52.4726 50.619
C 40.7334 48.8199 48.4395
C 42.7022 47.3818 49.0335
C 43.5406 52.1084 49.7109
C 45.1235 50.0937 50.1562
C 42.4898 51.1442 49.2593
C 44.1416 49.2061 49.712
C 42.0491 48.6679 48.9026
C 44.7972 51.56 50.1431
C 42.8789 49.7213 49.2898
C 50.0859 50.7278 49.7344
O 49.7856 50.8453 51.245
C 48.6469 49.9962 51.604
H 53.5946 44.8453 51.364
H 55.6043 44.582 49.7678
H 56.1251 45.003 51.4033
H 60.9596 52.051 47.3271
H 51.8052 52.5124 48.7136
H 60.6643 50.0414 49.106
H 60.3454 49.4266 47.4433
H 52.5381 46.973 51.0539
H 57.3398 46.4076 49.7537
H 58.6084 53.1567 47.3666
H 52.03 49.298 51.2288
H 51.6153 48.512 49.7015
H 53.9084 53.4724 48.1026
H 56.3102 53.3381 47.7334
H 58.5005 48.0126 49.2883
H 40.1309 45.5394 47.9494
H 44.1802 55.4041 50.1708
H 39.0387 47.753 47.7427
H 46.3335 54.51 50.9382
H 47.815 52.6148 51.4052
H 42.4729 45.2937 48.7762
H 42.3912 53.9046 49.3991
H 46.5533 48.5934 50.6114
H 39.3523 50.3618 49.0346
H 39.9321 50.5035 47.3599
H 40.8781 52.3791 48.7825
H 44.2506 47.2052 50.5557
H 44.8735 47.3414 48.8646
H 49.6638 51.6229 49.2832
H 49.5829 49.8459 49.316
H 48.805 48.9748 51.278
H 48.6009 50.0411 52.6793
80
Lattice='100.0 0.0 0.0 0.0 100.0 0.0 0.0 0.0 100.0' Properties=species:S:1:pos:R:3 Timestep:=T pbc=F F F 1229=T Atoms.=T
C 54.1269 45.6314 50.933
C 55.5886 45.3775 50.523
C 51.5615 50.6198 49.6224
C 60.0884 51.5796 47.6705
C 52.2794 51.6379 49.0486
C 60.0795 50.1659 48.1964
C 53.5448 46.8581 50.7416
C 56.3457 46.5707 49.9846
C 58.8635 52.1886 47.6777
C 52.1737 49.3343 50.1481
C 54.4165 52.5998 48.3427
C 55.7818 52.5387 48.126
C 57.9282 48.8545 49.0795
C 53.6982 51.4899 48.8907
C 58.5504 49.9834 48.555
C 57.9038 51.2152 48.2198
C 54.2978 47.9452 50.1292
C 55.7248 47.8044 49.8131
C 53.6608 49.1674 49.832
C 56.4659 51.3135 48.4523
C 56.5184 48.9488 49.2899
C 54.3832 50.232 49.256
C 55.8018 50.1434 49.0051
C 40.6584 46.3923 48.2113
C 44.3537 54.3648 50.1697
C 47.311 50.5654 51.0401
C 40.0338 47.667 48.092
C 45.5866 53.8742 50.6094
C 47.1041 51.9519 51.0648
C 41.9982 46.2286 48.6816
C 43.3158 53.5043 49.7198
C 46.3847 49.6204 50.6115
C 40.2207 50.3242 48.388
C 41.2 51.4137 48.8203
C 44.1307 47.6535 49.5818
C 45.8476 52.4615 50.6128
C 40.7164 48.8232 48.4337
C 42.7068 47.3679 49.0341
C 43.5476 52.1008 49.7131
C 45.1384 50.1265 50.1642
C 42.4868 51.1499 49.2587
C 44.1516 49.2039 49.7153
C 42.0358 48.6541 48.8965
C 44.7963 51.5631 50.1429
C 42.8721 49.7503 49.2894
C 50.0908 50.7304 49.7503
O 49.7724 50.8336 51.2386
C 48.6634 50.0116 51.5995
H 53.5906 44.8431 51.3659
H 55.6066 44.5777 49.7682
H 56.1274 44.9983 51.4035
H 60.9638 52.0563 47.3244
H 51.8019 52.5156 48.713
H 60.6716 50.0363 49.1062
H 60.3529 49.4217 47.4441
H 52.534 46.9755 51.0538
H 57.3464 46.4103 49.7514
H 58.6075 53.1633 47.3643
H 52.0272 49.2942 51.2293
H 51.6134 48.5091 49.706
H 53.9057 53.4772 48.1012
H 56.3122 53.3446 47.7307
H 58.5026 48.0044 49.2905
H 40.128 45.5361 47.9481
H 44.1807 55.4077 50.1713
H 39.0345 47.7511 47.741
H 46.3361 54.514 50.9395
H 47.8201 52.6162 51.4073
H 42.4731 45.2861 48.7756
H 42.3866 53.9072 49.3974
H 46.5581 48.5881 50.613
H 39.3462 50.3649 49.0326
H 39.926 50.5066 47.3582
H 40.8762 52.3874 48.7825
H 44.2584 47.1979 50.5583
H 44.8816 47.3342 48.8666
H 49.6624 51.624 49.2788
H 49.5795 49.8462 49.3158
H 48.8042 48.9712 51.2786
H 48.6013 50.0372 52.6838
80
Lattice='100.0 0.0 0.0 0.0 100.0 0.0 0.0 0.0 100.0' Properties=species:S:1:pos:R:3 Timestep:=T pbc=F F F 1229=T Atoms.=T
C 54.1254 45.6371 50.9323
C 55.5853 45.371 50.5259
C 51.5781 50.6245 49.6146
C 60.0872 51.5891 47.6671
C 52.2836 51.634 49.0496
C 60.0673 50.1605 48.2007
C 53.5482 46.8551 50.7415
C 56.3418 46.5862 49.9819
C 58.8634 52.1787 47.6814
C 52.1853 49.3318 50.1457
C 54.4114 52.6001 48.3434
C 55.7936 52.5186 48.1312
C 57.9337 48.8638 49.0752
C 53.6975 51.4837 48.8932
C 58.5524 49.9903 48.5519
C 57.8932 51.2084 48.2244
C 54.2996 47.9623 50.1229
C 55.722 47.7956 49.8157
C 53.6651 49.1569 49.835
C 56.4643 51.318 48.451
C 56.5133 48.9334 49.2962
C 54.3729 50.2334 49.2582
C 55.8038 50.1633 48.9975
C 40.661 46.3912 48.212
C 44.3446 54.3628 50.1661
C 47.3174 50.5658 51.0436
C 40.0323 47.6682 48.0917
C 45.5896 53.8704 50.6103
C 47.0975 51.9525 51.0612
C 42.002 46.2359 48.6836
C 43.3241 53.4965 49.7225
C 46.3812 49.6218 50.6102
C 40.2336 50.315 48.3917
C 41.1976 51.4051 48.8187
C 44.1183 47.6564 49.5775
C 45.8304 52.4487 50.605
C 40.7071 48.8369 48.4316
C 42.7077 47.3735 49.0351
C 43.5564 52.0983 49.7163
C 45.132 50.1482 50.1631
C 42.481 51.1652 49.2578
C 44.1448 49.2049 49.7129
C 42.0262 48.6249 48.8905
C 44.8015 51.5636 50.145
C 42.8995 49.7582 49.2999
C 50.0725 50.733 49.7618
O 49.771 50.8307 51.2326
C 48.6699 50.0158 51.5985
H 53.5854 44.839 51.369
H 55.609 44.5732 49.769
H 56.1297 44.9931 51.4034
H 60.9689 52.0608 47.3218
H 51.7976 52.5207 48.7118
H 60.6789 50.0319 49.1051
H 60.3607 49.4182 47.4453
H 52.5285 46.979 51.0538
H 57.3557 46.4134 49.7482
H 58.6085 53.1717 47.3609
H 52.0243 49.2901 51.2295
H 51.6117 48.5062 49.7111
H 53.9006 53.4853 48.0989
H 56.3163 53.3534 47.7267
H 58.5051 47.994 49.2936
H 40.1225 45.5291 47.9456
H 44.1804 55.4143 50.1717
H 39.029 47.7496 47.7389
H 46.3418 54.5215 50.9422
H 47.8292 52.6203 51.4112
H 42.4731 45.2773 48.7749
H 42.3819 53.909 49.3958
H 46.5636 48.5801 50.6146
H 39.34 50.368 49.0297
H 39.9192 50.5096 47.3571
H 40.8728 52.4 48.7822
H 44.2665 47.1908 50.5593
H 44.8888 47.3269 48.87
H 49.663 51.6243 49.2752
H 49.5781 49.8485 49.3177
H 48.8037 48.9693 51.2794
H 48.6016 50.033 52.6884
80
Lattice='100.0 0.0 0.0 0.0 100.0 0.0 0.0 0.0 100.0' Properties=species:S:1:pos:R:3 Timestep:=T pbc=F F F 1229=T Atoms.=T
C 54.1249 45.6385 50.9322
C 55.585 45.37 50.5263
C 51.5808 50.6256 49.6128
C 60.0874 51.5918 47.6661
C 52.2838 51.6334 49.0498
C 60.066 50.1587 48.2017
C 53.5482 46.853 50.7422
C 56.3411 46.5882 49.9817
C 58.8632 52.1768 47.6822
C 52.1854 49.3314 50.1458
C 54.4112 52.5998 48.3436
C 55.7942 52.5157 48.1321
C 57.9329 48.8651 49.0749
C 53.6981 51.4829 48.8934
C 58.5527 49.991 48.5515
C 57.8914 51.2079 48.2249
C 54.2999 47.9636 50.1225
C 55.7241 47.7941 49.8155
C 53.6654 49.1565 49.8351
C 56.4635 51.3184 48.451
C 56.5127 48.9318 49.2969
C 54.3729 50.2353 49.2576
C 55.804 50.1652 48.9968
C 40.6618 46.3915 48.2123
C 44.3434 54.3623 50.1656
C 47.3182 50.5663 51.0442
C 40.0319 47.6678 48.0915
C 45.5895 53.8696 50.6102
C 47.0961 51.9518 51.0604
C 42.0012 46.2354 48.6833
C 43.3256 53.4954 49.723
C 46.381 49.6226 50.6102
C 40.2359 50.3134 48.3924
C 41.1979 51.4034 48.8187
C 44.1187 47.658 49.5778
C 45.829 52.4482 50.6043
C 40.7062 48.8393 48.4315
C 42.707 47.375 49.0349
C 43.5553 52.0984 49.7159
C 45.1306 50.1493 50.1625
C 42.48 51.1664 49.2575
C 44.1408 49.2064 49.7116
C 42.0247 48.6224 48.8897
C 44.8025 51.5633 50.1454
C 42.9056 49.7587 49.3021
C 50.0692 50.7335 49.7639
O 49.7725 50.8315 51.231
C 48.6698 50.015 51.5991
H 53.5842 44.838 51.3697
H 55.6096 44.5721 49.7693
H 56.1302 44.9919 51.4033
H 60.9702 52.0619 47.3212
H 51.7966 52.522 48.7115
H 60.6807 50.0309 49.1046
H 60.3626 49.4174 47.4457
H 52.5272 46.9798 51.0538
H 57.358 46.4143 49.7474
H 58.6089 53.1736 47.3602
H 52.0234 49.2891 51.2296
H 51.6111 48.5055 49.7123
H 53.8993 53.4873 48.0984
H 56.3173 53.3555 47.7257
H 58.5057 47.9914 49.2943
H 40.1211 45.5273 47.9449
H 44.1803 55.416 50.1718
H 39.0277 47.7491 47.7383
H 46.3433 54.5234 50.9429
H 47.8315 52.6214 51.4122
H 42.473 45.2751 48.7747
H 42.3809 53.9093 49.3954
H 46.5649 48.5782 50.615
H 39.3386 50.3687 49.029
H 39.9175 50.5103 47.3569
H 40.8719 52.403 48.7821
H 44.2685 47.1891 50.5595
H 44.8906 47.3252 48.8709
H 49.6632 51.6243 49.2744
H 49.5779 49.8492 49.3183
H 48.8036 48.969 51.2796
H 48.6016 50.032 52.6895
80
Lattice='100.0 0.0 0.0 0.0 100.0 0.0 0.0 0.0 100.0' Properties=species:S:1:pos:R:3 Timestep:=T pbc=F F F 1229=T Atoms.=T
C 54.1243 45.6388 50.9325
C 55.5895 45.3742 50.524
C 51.5709 50.6262 49.6121
C 60.0924 51.5966 47.6634
C 52.276 51.6359 49.0493
C 60.0806 50.1548 48.2004
C 53.5413 46.8411 50.7485
C 56.3415 46.5741 49.9857
C 58.8621 52.1803 47.6811
C 52.1631 49.3327 50.1508
C 54.4205 52.5959 48.3434
C 55.7751 52.5301 48.1302
C 57.9129 48.8568 49.0814
C 53.7058 51.4907 48.8893
C 58.5518 49.9829 48.5547
C 57.8935 51.2183 48.2208
C 54.2994 47.9411 50.1314
C 55.7489 47.7983 49.8081
C 53.6592 49.1719 49.8308
C 56.4587 51.3133 48.4538
C 56.5159 48.9486 49.2905
C 54.3953 50.25 49.2475
C 55.803 50.1418 49.0055
C 40.6627 46.3969 48.2131
C 44.3511 54.3616 50.1685
C 47.313 50.5701 51.0429
C 40.0312 47.6616 48.0907
C 45.5822 53.8708 50.6075
C 47.0967 51.9443 51.0597
C 41.9873 46.2154 48.6766
C 43.3216 53.5019 49.722
C 46.3852 49.6274 50.6124
C 40.2301 50.3169 48.3907
C 41.2068 51.4057 48.822
C 44.1471 47.6663 49.5889
C 45.8503 52.4693 50.6138
C 40.7166 48.8327 48.4346
C 42.6973 47.3776 49.0316
C 43.5261 52.1034 49.7054
C 45.131 50.1167 50.1601
C 42.4824 51.1451 49.2568
C 44.1183 49.2191 49.7044
C 42.0297 48.6589 48.8945
C 44.8016 51.5598 50.1446
C 42.9047 49.748 49.3009
C 50.0765 50.7328 49.7617
O 49.7892 50.8448 51.2274
C 48.6573 49.9998 51.6069
H 53.582 44.8368 51.3708
H 55.6104 44.5706 49.7703
H 56.1307 44.9897 51.4028
H 60.9721 52.064 47.3201
H 51.795 52.5239 48.7113
H 60.6831 50.0294 49.1029
H 60.3657 49.417 47.447
H 52.5253 46.9811 51.0537
H 57.3612 46.4164 49.7461
H 58.6106 53.175 47.3593
H 52.0212 49.2876 51.2306
H 51.6091 48.5037 49.7144
H 53.8969 53.4911 48.0973
H 56.319 53.3568 47.725
H 58.5059 47.9883 49.2953
H 40.1185 45.5237 47.9437
H 44.1793 55.419 50.1716
H 39.0253 47.7482 47.7374
H 46.3461 54.5269 50.9443
H 47.8348 52.623 51.4134
H 42.4721 45.2715 48.7741
H 42.3811 53.9085 49.3954
H 46.5668 48.5754 50.6156
H 39.3372 50.3699 49.0268
H 39.915 50.5112 47.3578
H 40.8708 52.4063 48.782
H 44.2719 47.1869 50.5586
H 44.8927 47.3227 48.8735
H 49.6635 51.6234 49.2734
H 49.5775 49.8518 49.32
H 48.8034 48.9696 51.28
H 48.6018 50.0302 52.6909
80
Lattice='100.0 0.0 0.0 0.0 100.0 0.0 0.0 0.0 100.0' Properties=species:S:1:pos:R:3 Timestep:=T pbc=F F F 1229=T Atoms.=T
C 54.1236 45.6353 50.9341
C 55.5877 45.368 50.5262
C 51.5714 50.6371 49.6054
C 60.0917 51.5881 47.6666
C 52.2772 51.6371 49.0481
C 60.0675 50.1607 48.2007
C 53.5436 46.8491 50.7452
C 56.3457 46.5802 49.983
C 58.858 52.1771 47.6831
C 52.1613 49.3227 50.1564
C 54.4174 52.6028 48.3413
C 55.7798 52.5297 48.1294
C 57.9335 48.8644 49.075
C 53.6962 51.5004 48.8873
C 58.5525 49.9933 48.5506
C 57.9001 51.205 48.2244
C 54.3026 47.9479 50.1282
C 55.7323 47.7899 49.8146
C 53.6709 49.1519 49.8353
C 56.4722 51.3262 48.4466
C 56.5194 48.9307 49.2961
C 54.376 50.2446 49.2538
C 55.8111 50.1514 49.0005
C 40.6557 46.3963 48.2105
C 44.3497 54.3626 50.1681
C 47.3209 50.567 51.0461
C 40.03 47.6625 48.0904
C 45.5844 53.8708 50.6083
C 47.0955 51.9492 51.0593
C 42.0028 46.227 48.6832
C 43.3205 53.499 49.7214
C 46.3808 49.6261 50.6105
C 40.2321 50.3196 48.3916
C 41.1889 51.4057 48.8155
C 44.124 47.6599 49.5798
C 45.8362 52.4572 50.6073
C 40.7111 48.8337 48.4328
C 42.7035 47.3853 49.0345
C 43.5551 52.1065 49.7165
C 45.1345 50.1429 50.1633
C 42.481 51.1537 49.2569
C 44.1333 49.2051 49.7087
C 42.0355 48.6385 48.8949
C 44.8007 51.561 50.1444
C 42.896 49.741 49.2971
C 50.0669 50.7345 49.7658
O 49.7799 50.8377 51.2272
C 48.664 50.0088 51.6028
H 53.5806 44.836 51.3715
H 55.6114 44.569 49.771
H 56.1314 44.9876 51.4023
H 60.9743 52.0664 47.3188
H 51.793 52.5256 48.7112
H 60.6857 50.028 49.1014
H 60.3688 49.4165 47.4482
H 52.5227 46.9821 51.054
H 57.3637 46.4177 49.7452
H 58.6118 53.1765 47.3585
H 52.0194 49.286 51.2321
H 51.6072 48.5013 49.7161
H 53.8955 53.4935 48.0966
H 56.3193 53.3589 47.7241
H 58.5045 47.9856 49.2964
H 40.1167 45.5218 47.9429
H 44.179 55.4209 50.1717
H 39.0236 47.7471 47.7367
H 46.3473 54.5295 50.945
H 47.8373 52.6233 51.4143
H 42.471 45.2674 48.7733
H 42.3808 53.9087 49.3953
H 46.569 48.574 50.6164
H 39.3359 50.371 49.0248
H 39.9127 50.5121 47.3586
H 40.8688 52.41 48.7815
H 44.2756 47.1851 50.5578
H 44.895 47.3207 48.8762
H 49.6641 51.6229 49.2724
H 49.5772 49.8534 49.3217
H 48.8034 48.9691 51.2809
H 48.6024 50.0278 52.6924
80
Lattice='100.0 0.0 0.0 0.0 100.0 0.0 0.0 0.0 100.0' Properties=species:S:1:pos:R:3 Timestep:=T pbc=F F F 1229=T Atoms.=T
C 54.1248 45.6361 50.9336
C 55.5887 45.3709 50.5253
C 51.5695 50.6282 49.6081
C 60.0921 51.5987 47.6626
C 52.2756 51.6403 49.0464
C 60.0886 50.1548 48.1989
C 53.5437 46.8479 50.7456
C 56.3446 46.5735 49.9853
C 58.8612 52.1789 47.6818
C 52.1624 49.3297 50.1521
C 54.4141 52.6029 48.3419
C 55.7775 52.5367 48.1272
C 57.9166 48.8514 49.0827
C 53.7083 51.4871 48.8904
C 58.5508 49.9813 48.5555
C 57.8967 51.2237 48.2182
C 54.3008 47.9458 50.1296
C 55.7376 47.7942 49.812
C 53.6741 49.1667 49.8291
C 56.464 51.3175 48.4514
C 56.5174 48.9405 49.293
C 54.3864 50.2448 49.2517
C 55.7953 50.1424 49.0069
C 40.6647 46.3936 48.2135
C 44.35 54.3627 50.1682
C 47.3192 50.5683 51.046
C 40.0283 47.6653 48.09
C 45.5839 53.872 50.6082
C 47.0958 51.9476 51.059
C 41.9962 46.2288 48.681
C 43.3211 53.4961 49.7215
C 46.3815 49.6278 50.6111
C 40.2247 50.3136 48.3885
C 41.2034 51.4127 48.8212
C 44.1325 47.6664 49.5835
C 45.8513 52.4705 50.6139
C 40.7169 48.8301 48.4346
C 42.698 47.38 49.0321
C 43.529 52.1087 49.707
C 45.1303 50.1136 50.1593
C 42.4821 51.1614 49.2579
C 44.1356 49.2079 49.7099
C 42.026 48.6376 48.8913
C 44.796 51.5607 50.1425
C 42.9033 49.7463 49.3001
C 50.0703 50.7352 49.7645
O 49.7824 50.8408 51.2282
C 48.6626 50.0052 51.6051
H 53.5789 44.8349 51.3724
H 55.6121 44.5676 49.7718
H 56.1319 44.9856 51.402
H 60.9755 52.0676 47.3182
H 51.7913 52.5274 48.711
H 60.6881 50.0269 49.1002
H 60.3717 49.4162 47.449
H 52.5213 46.9833 51.0538
H 57.3664 46.4193 49.7442
H 58.6126 53.1771 47.3582
H 52.0178 49.2844 51.2334
H 51.6057 48.4991 49.7177
H 53.894 53.4961 48.0958
H 56.3198 53.3611 47.7232
H 58.5045 47.9829 49.2972
H 40.1148 45.5198 47.942
H 44.1786 55.4227 50.1717
H 39.0218 47.7463 47.7359
H 46.3485 54.5317 50.9456
H 47.8391 52.6239 51.4149
H 42.4705 45.2654 48.773
H 42.3804 53.9081 49.3951
H 46.5702 48.573 50.6168
H 39.3342 50.3721 49.0234
H 39.9104 50.5131 47.3589
H 40.8677 52.4127 48.7813
H 44.2779 47.1837 50.5565
H 44.8961 47.3189 48.8784
H 49.664 51.6226 49.2715
H 49.5766 49.8549 49.323
H 48.8033 48.9693 51.2814
H 48.6028 50.0261 52.6933
80
Lattice='100.0 0.0 0.0 0.0 100.0 0.0 0.0 0.0 100.0' Properties=species:S:1:pos:R:3 Timestep:=T pbc=F F F 1229=T Atoms.=T
C 54.1232 45.6362 50.9344
C 55.5887 45.3671 50.5263
C 51.5703 50.6315 49.6046
C 60.0936 51.5854 47.6673
C 52.2739 51.6411 49.0458
C 60.0689 50.164 48.1992
C 53.5462 46.8527 50.7432
C 56.3457 46.578 49.984
C 58.86 52.1805 47.6814
C 52.168 49.325 50.1528
C 54.4158 52.6086 48.3395
C 55.7883 52.5226 48.1304
C 57.9367 48.861 49.0756
C 53.7009 51.4947 48.8888
C 58.5551 49.9934 48.5501
C 57.8878 51.2053 48.2268
C 54.3034 47.9496 50.1276
C 55.7272 47.7872 49.8165
C 53.673 49.1534 49.8343
C 56.4724 51.3293 48.4454
C 56.5172 48.9235 49.2989
C 54.3711 50.2386 49.2575
C 55.8098 50.1636 48.9965
C 40.6602 46.3976 48.2122
C 44.3485 54.3616 50.1676
C 47.3197 50.5671 51.0466
C 40.0296 47.661 48.0901
C 45.5844 53.8738 50.6085
C 47.0968 51.9487 51.0593
C 42.0024 46.2318 48.6835
C 43.3209 53.503 49.7219
C 46.3803 49.6279 50.6107
C 40.2326 50.3189 48.3916
C 41.2008 51.4058 48.8197
C 44.1252 47.6648 49.5807
C 45.8327 52.4545 50.6054
C 40.7128 48.833 48.4334
C 42.6987 47.3865 49.033
C 43.5449 52.0958 49.7121
C 45.1238 50.1352 50.1584
C 42.4766 51.1657 49.2563
C 44.1403 49.2043 49.7114
C 42.0309 48.6242 48.8919
C 44.8019 51.5579 50.1445
C 42.9029 49.752 49.3003
C 50.0652 50.7363 49.7657
O 49.7807 50.8403 51.2291
C 48.6633 50.0065 51.605
H 53.5775 44.8343 51.3731
H 55.613 44.566 49.7726
H 56.1325 44.9834 51.4016
H 60.9769 52.0701 47.317
H 51.7893 52.5297 48.7106
H 60.6911 50.0255 49.0987
H 60.3752 49.4157 47.4499
H 52.5199 46.9845 51.0535
H 57.3686 46.4208 49.7433
H 58.6138 53.1783 47.3575
H 52.0163 49.283 51.2341
H 51.6044 48.4972 49.7196
H 53.8918 53.4992 48.095
H 56.3205 53.3632 47.7223
H 58.5036 47.9795 49.2984
H 40.1136 45.5183 47.9415
H 44.1783 55.4242 50.1717
H 39.0201 47.7454 47.7352
H 46.3495 54.5341 50.9461
H 47.8411 52.624 51.4155
H 42.4694 45.264 48.7725
H 42.3803 53.9078 49.3951
H 46.5719 48.5725 50.6174
H 39.3326 50.373 49.0214
H 39.9079 50.5138 47.3595
H 40.8673 52.4152 48.7813
H 44.2807 47.1825 50.5551
H 44.8974 47.3175 48.8811
H 49.6641 51.6224 49.2704
H 49.5759 49.8565 49.3246
H 48.8033 48.9692 51.282
H 48.6033 50.024 52.6945
80
Lattice='100.0 0.0 0.0 0.0 100.0 0.0 0.0 0.0 100.0' Properties=species:S:1:pos:R:3 Timestep:=T pbc=F F F 1229=T Atoms.=T
C 54.1235 45.6363 50.9343
C 55.5888 45.3677 50.5262
C 51.5699 50.6303 49.6048
C 60.0933 51.589 47.666
C 52.2741 51.6414 49.0455
C 60.0716 50.1613 48.1997
C 53.5454 46.8513 50.7439
C 56.346 46.5757 49.9846
C 58.8602 52.1796 47.6817
C 52.1683 49.3257 50.1522
C 54.4158 52.6074 48.3399
C 55.7859 52.5259 48.1296
C 57.9336 48.8601 49.0765
C 53.7033 51.4927 48.8892
C 58.5543 49.9917 48.5509
C 57.8901 51.2075 48.2255
C 54.3017 47.9498 50.128
C 55.7298 47.7879 49.8156
C 53.6733 49.1574 49.8328
C 56.4702 51.3267 48.4468
C 56.5172 48.9283 49.2973
C 54.3745 50.2391 49.2567
C 55.8058 50.1594 48.9988
C 40.6611 46.3967 48.2124
C 44.3486 54.3619 50.1676
C 47.3192 50.5672 51.0465
C 40.0292 47.6616 48.09
C 45.5846 53.8731 50.6086
C 47.0963 51.9487 51.059
C 41.9996 46.2289 48.6823
C 43.321 53.5 49.7217
C 46.3797 49.6284 50.6106
C 40.2322 50.3183 48.3915
C 41.2014 51.4065 48.82
C 44.1296 47.6659 49.5824
C 45.8354 52.4571 50.6065
C 40.7137 48.8328 48.4337
C 42.6984 47.3847 49.0327
C 43.5415 52.0974 49.711
C 45.1241 50.131 50.1582
C 42.4794 51.1629 49.2571
C 44.1362 49.2073 49.7102
C 42.0308 48.6315 48.8925
C 44.7996 51.558 50.1437
C 42.9039 49.7512 49.3006
C 50.0659 50.7364 49.7658
O 49.7807 50.8405 51.2292
C 48.6634 50.0062 51.6053
H 53.5772 44.8342 51.3732
H 55.6132 44.5657 49.7728
H 56.1326 44.983 51.4015
H 60.9771 52.0702 47.317
H 51.789 52.5301 48.7105
H 60.6915 50.0253 49.0984
H 60.3757 49.4157 47.4502
H 52.5197 46.9848 51.0534
H 57.369 46.4212 49.7432
H 58.6141 53.1785 47.3574
H 52.016 49.2827 51.2342
H 51.6042 48.4969 49.72
H 53.8915 53.4998 48.0948
H 56.3206 53.3634 47.7222
H 58.5037 47.9791 49.2985
H 40.1134 45.5181 47.9414
H 44.1782 55.4244 50.1717
H 39.0198 47.7452 47.7351
H 46.3496 54.5345 50.9462
H 47.8414 52.6241 51.4156
H 42.4692 45.2637 48.7724
H 42.3803 53.9077 49.395
H 46.5722 48.5725 50.6175
H 39.3324 50.3733 49.0211
H 39.9075 50.514 47.3596
H 40.8672 52.4154 48.7813
H 44.2812 47.1822 50.555
H 44.8977 47.3172 48.8815
H 49.6641 51.6223 49.2702
H 49.5757 49.8567 49.3249
H 48.8033 48.9692 51.2821
H 48.6034 50.0235 52.6947
80
Lattice='100.0 0.0 0.0 0.0 100.0 0.0 0.0 0.0 100.0' Properties=species:S:1:pos:R:3 Timestep:=T pbc=F F F 1229=T Atoms.=T
C 54.1238 45.6365 50.9342
C 55.5888 45.3681 50.5261
C 51.5696 50.6291 49.6048
C 60.093 51.5918 47.665
C 52.2753 51.6417 49.045
C 60.0727 50.1589 48.2004
C 53.5452 46.851 50.7441
C 56.3461 46.574 49.985
C 58.8607 52.1786 47.682
C 52.1695 49.3264 50.1514
C 54.4151 52.6057 48.3407
C 55.7831 52.53 48.1286
C 57.9302 48.8607 49.0768
C 53.7059 51.4905 48.8896
C 58.5538 49.9902 48.5515
C 57.8941 51.208 48.2246
C 54.3002 47.9508 50.1281
C 55.7317 47.7896 49.8146
C 53.6744 49.1604 49.8315
C 56.467 51.3225 48.4489
C 56.5162 48.934 49.2955
C 54.3785 50.2393 49.2559
C 55.8016 50.1537 49.0017
C 40.6621 46.396 48.2127
C 44.3486 54.3622 50.1677
C 47.3185 50.5673 51.0464
C 40.0288 47.6623 48.0899
C 45.5847 53.8716 50.6085
C 47.095 51.9487 51.0584
C 41.9996 46.2298 48.6823
C 43.3214 53.4972 49.7217
C 46.3782 49.6294 50.6101
C 40.232 50.318 48.3913
C 41.2023 51.4075 48.8203
C 44.1297 47.6671 49.5825
C 45.8341 52.4562 50.6059
C 40.7143 48.8324 48.4339
C 42.6982 47.3843 49.0326
C 43.5424 52.0968 49.7113
C 45.123 50.1318 50.1578
C 42.4807 51.1647 49.2577
C 44.1366 49.208 49.7104
C 42.0304 48.631 48.8923
C 44.7986 51.5575 50.1432
C 42.9052 49.7516 49.301
C 50.0665 50.7366 49.766
O 49.7806 50.8409 51.2294
C 48.6635 50.0059 51.6057
H 53.5768 44.8341 51.3734
H 55.6134 44.5652 49.773
H 56.1328 44.9823 51.4014
H 60.9775 52.0705 47.3168
H 51.7884 52.5308 48.7104
H 60.692 50.025 49.0978
H 60.3764 49.4157 47.4506
H 52.5194 46.9852 51.0532
H 57.3697 46.4217 49.7429
H 58.6145 53.1787 47.3572
H 52.0157 49.2822 51.2342
H 51.6041 48.4964 49.7206
H 53.8911 53.5006 48.0946
H 56.3209 53.3637 47.722
H 58.5037 47.9787 49.2986
H 40.1131 45.5178 47.9413
H 44.1781 55.4249 50.1717
H 39.0193 47.7448 47.7349
H 46.3499 54.5351 50.9463
H 47.8419 52.6241 51.4157
H 42.4689 45.2633 48.7723
H 42.3802 53.9076 49.395
H 46.5725 48.5725 50.6177
H 39.332 50.3736 49.0205
H 39.9068 50.5143 47.3599
H 40.8672 52.4157 48.7813
H 44.282 47.1819 50.5545
H 44.898 47.3167 48.8823
H 49.664 51.6223 49.2698
H 49.5753 49.8572 49.3253
H 48.8033 48.9692 51.2823
H 48.6035 50.0229 52.6951
80
Lattice='100.0 0.0 0.0 0.0 100.0 0.0 0.0 0.0 100.0' Properties=species:S:1:pos:R:3 Timestep:=T pbc=F F F 1229=T Atoms.=T
C 54.1238 45.6368 50.9342
C 55.5889 45.368 50.5262
C 51.5696 50.6282 49.6045
C 60.0927 51.5929 47.6646
C 52.2767 51.6418 49.0445
C 60.0724 50.1578 48.2008
C 53.5457 46.852 50.7436
C 56.346 46.5741 49.9851
C 58.861 52.1777 47.6823
C 52.1713 49.3266 50.1506
C 54.4141 52.6047 48.3413
C 55.7812 52.5333 48.1277
C 57.9259 48.8622 49.077
C 53.7071 51.4896 48.8897
C 58.5535 49.9893 48.5518
C 57.8976 51.2073 48.2242
C 54.3001 47.952 50.1278
C 55.7326 47.7926 49.8135
C 53.6754 49.1606 49.8312
C 56.4644 51.3181 48.451
C 56.5146 48.9383 49.2942
C 54.3819 50.2388 49.2554
C 55.8006 50.1478 49.004
C 40.6627 46.3956 48.2129
C 44.3486 54.3621 50.1676
C 47.3178 50.5674 51.0464
C 40.0285 47.6627 48.0899
C 45.5847 53.8705 50.6084
C 47.0939 51.9486 51.0579
C 41.9996 46.2304 48.6824
C 43.3219 53.4957 49.7218
C 46.3769 49.6305 50.6097
C 40.2321 50.3179 48.3914
C 41.2033 51.4081 48.8207
C 44.1297 47.668 49.5826
C 45.834 52.4563 50.6058
C 40.7149 48.8322 48.4341
C 42.6981 47.3843 49.0326
C 43.5414 52.0965 49.7109
C 45.1225 50.131 50.1576
C 42.4815 51.1649 49.258
C 44.1362 49.2088 49.7103
C 42.0308 48.6311 48.8924
C 44.7982 51.5565 50.143
C 42.9058 49.7523 49.3013
C 50.0668 50.7368 49.7662
O 49.7804 50.8412 51.2297
C 48.6634 50.0057 51.6061
H 53.5763 44.8339 51.3736
H 55.6137 44.5647 49.7733
H 56.133 44.9815 51.4012
H 60.9778 52.0709 47.3166
H 51.7879 52.5315 48.7103
H 60.6927 50.0246 49.0972
H 60.3774 49.4157 47.4511
H 52.5192 46.9857 51.053
H 57.3704 46.4224 49.7426
H 58.6149 53.1789 47.357
H 52.0154 49.2816 51.2342
H 51.6039 48.4958 49.7213
H 53.8905 53.5014 48.0944
H 56.3211 53.3644 47.7217
H 58.5035 47.9783 49.2987
H 40.1127 45.5174 47.9411