ITEM: TIMESTEP
0
ITEM: NUMBER OF ATOMS
80
ITEM: BOX BOUNDS pp pp pp
0.0000000000000000e+00 1.0000000000000000e+02
0.0000000000000000e+00 1.0000000000000000e+02
0.0000000000000000e+00 1.0000000000000000e+02
ITEM: ATOMS id element type x y z q vx vy vz 
1 C 1 52.314 54.391 48.93 -0.0372977 0 0 0 
2 C 1 53.584 54.419 48.143 -0.0981958 0 0 0 
3 C 1 50.503 49.654 51.647 0.0220799 0 0 0 
4 C 1 58.306 47.789 48.123 -0.0379534 0 0 0 
5 C 1 51.241 48.539 51.563 -0.0741704 0 0 0 
6 C 1 58.145 49.237 47.748 -0.117635 0 0 0 
7 C 1 51.902 53.308 49.602 -0.0535732 0 0 0 
8 C 1 54.364 53.135 48.205 -0.0468022 0 0 0 
9 C 1 57.244 47.311 48.791 -0.0570845 0 0 0 
10 C 1 50.907 50.943 50.981 -0.134099 0 0 0 
11 C 1 53.243 47.342 50.823 -0.0575095 0 0 0 
12 C 1 54.479 47.284 50.189 -0.0512769 0 0 0 
13 C 1 56.088 50.717 48.288 -0.0718729 0 0 0 
14 C 1 52.514 48.532 50.842 0.0207365 0 0 0 
15 C 1 56.79 49.527 48.319 0.0225034 0 0 0 
16 C 1 56.267 48.388 48.935 0.00175295 0 0 0 
17 C 1 52.686 52.066 49.599 0.00149018 0 0 0 
18 C 1 53.983 52.025 48.88 0.00405545 0 0 0 
19 C 1 52.232 50.955 50.238 0.00475399 0 0 0 
20 C 1 55.015 48.417 49.557 0.00492145 0 0 0 
21 C 1 54.817 50.785 48.891 0.00507053 0 0 0 
22 C 1 53.019 49.687 50.206 -0.000325927 0 0 0 
23 C 1 54.277 49.639 49.548 0.000433164 0 0 0 
24 C 1 42.445 45.656 47.809 -0.0380551 0 0 0 
25 C 1 46.264 52.788 51.712 -0.0499099 0 0 0 
26 C 1 42.511 53.856 48.825 -0.0412677 0 0 0 
27 C 1 43.643 45.636 48.567 -0.0632007 0 0 0 
28 C 1 45.442 53.711 51.076 -0.0575437 0 0 0 
29 C 1 43.565 54.24 49.65 -0.0583984 0 0 0 
30 C 1 41.733 46.849 47.572 -0.0642794 0 0 0 
31 C 1 46.115 51.401 51.513 0.00871612 0 0 0 
32 C 1 42.289 52.508 48.572 -0.0530028 0 0 0 
33 C 1 45.425 46.987 49.884 -0.109013 0 0 0 
34 C 1 45.735 48.426 50.345 -0.0675359 0 0 0 
35 C 1 41.8 49.455 48.055 -0.130107 0 0 0 
36 C 1 44.416 53.287 50.233 0.0195873 0 0 0 
37 C 1 44.14 46.816 49.111 0.0166068 0 0 0 
38 C 1 42.229 48.012 48.12 0.017719 0 0 0 
39 C 1 45.154 50.943 50.582 -0.003945 0 0 0 
40 C 1 43.132 51.54 49.135 0.00310604 0 0 0 
41 C 1 44.941 49.51 50.156 0.0130314 0 0 0 
42 C 1 42.893 50.122 48.877 0.00514652 0 0 0 
43 C 1 43.389 47.945 48.879 0.00142651 0 0 0 
44 C 1 44.239 51.904 49.978 0.00207144 0 0 0 
45 C 1 43.769 49.238 49.366 0.00075624 0 0 0 
46 C 1 49.226 49.706 52.442 0.0376457 0 0 0 
47 O 3 48.212 50.29 51.633 -0.289692 0 0 0 
48 C 1 47.01 50.525 52.353 0.0466524 0 0 0 
49 H 2 51.71 55.295 48.942 0.033544 0 0 0 
50 H 2 53.35 54.642 47.096 0.0533833 0 0 0 
51 H 2 54.214 55.231 48.521 0.0533789 0 0 0 
52 H 2 59.184 47.209 47.875 0.0385484 0 0 0 
53 H 2 50.929 47.622 52.054 0.0457119 0 0 0 
54 H 2 58.917 49.853 48.22 0.0598507 0 0 0 
55 H 2 58.157 49.364 46.661 0.0595318 0 0 0 
56 H 2 50.962 53.364 50.141 0.0421634 0 0 0 
57 H 2 55.285 53.176 47.637 0.0397901 0 0 0 
58 H 2 57.12 46.308 49.163 0.0469248 0 0 0 
59 H 2 50.117 51.209 50.265 0.120083 0 0 0 
60 H 2 50.941 51.715 51.763 0.0730814 0 0 0 
61 H 2 52.864 46.447 51.31 0.0427954 0 0 0 
62 H 2 55.023 46.343 50.203 0.0477141 0 0 0 
63 H 2 56.545 51.567 47.798 0.0512549 0 0 0 
64 H 2 42.074 44.723 47.387 0.042645 0 0 0 
65 H 2 47.035 53.161 52.386 0.0493896 0 0 0 
66 H 2 41.86 54.608 48.388 0.0393824 0 0 0 
67 H 2 44.175 44.699 48.707 0.0450214 0 0 0 
68 H 2 45.598 54.77 51.27 0.0437228 0 0 0 
69 H 2 43.713 55.301 49.844 0.0465656 0 0 0 
70 H 2 40.831 46.847 46.97 0.0470113 0 0 0 
71 H 2 41.459 52.224 47.932 0.0425006 0 0 0 
72 H 2 46.258 46.653 49.254 0.0611394 0 0 0 
73 H 2 45.39 46.348 50.773 0.0529751 0 0 0 
74 H 2 46.702 48.509 50.82 0.0952657 0 0 0 
75 H 2 40.816 49.591 48.511 0.0653657 0 0 0 
76 H 2 41.808 49.811 47.021 0.0657955 0 0 0 
77 H 2 49.391 50.316 53.339 0.0252381 0 0 0 
78 H 2 48.903 48.706 52.755 0.0251366 0 0 0 
79 H 2 47.236 51.039 53.297 0.0240608 0 0 0 
80 H 2 46.52 49.59 52.641 0.0245127 0 0 0 
ITEM: TIMESTEP
1
ITEM: NUMBER OF ATOMS
80
ITEM: BOX BOUNDS pp pp pp
0.0000000000000000e+00 1.0000000000000000e+02
0.0000000000000000e+00 1.0000000000000000e+02
0.0000000000000000e+00 1.0000000000000000e+02
ITEM: ATOMS id element type x y z q vx vy vz 
1 C 1 52.2938 54.3931 48.9416 -0.0395947 0 0 0 
2 C 1 53.5915 54.4282 48.1347 -0.100326 0 0 0 
3 C 1 50.5252 49.6489 51.6352 0.0308192 0 0 0 
4 C 1 58.3226 47.7634 48.1229 -0.0417258 0 0 0 
5 C 1 51.2451 48.5299 51.5643 -0.077848 0 0 0 
6 C 1 58.1634 49.2545 47.7335 -0.12253 0 0 0 
7 C 1 51.9009 53.3078 49.6025 -0.0525745 0 0 0 
8 C 1 54.3773 53.1254 48.201 -0.0486707 0 0 0 
9 C 1 57.2411 47.2992 48.7961 -0.05736 0 0 0 
10 C 1 50.9188 50.9514 50.9712 -0.137193 0 0 0 
11 C 1 53.2541 47.3233 50.8229 -0.058052 0 0 0 
12 C 1 54.4697 47.268 50.1989 -0.051665 0 0 0 
13 C 1 56.1058 50.7238 48.2771 -0.0739613 0 0 0 
14 C 1 52.4913 48.5113 50.8609 0.0207638 0 0 0 
15 C 1 56.7748 49.5397 48.3224 0.0233265 0 0 0 
16 C 1 56.2785 48.3812 48.9311 0.00187164 0 0 0 
17 C 1 52.6858 52.0716 49.5974 0.000822177 0 0 0 
18 C 1 53.9763 52.0335 48.8804 0.00510371 0 0 0 
19 C 1 52.2247 50.9446 50.2453 0.00647256 0 0 0 
20 C 1 55.0128 48.4009 49.563 0.00440166 0 0 0 
21 C 1 54.8146 50.8078 48.8845 0.00427146 0 0 0 
22 C 1 52.9911 49.7289 50.2077 -0.000614826 0 0 0 
23 C 1 54.2846 49.6363 49.5446 0.000750573 0 0 0 
24 C 1 42.4484 45.6459 47.8092 -0.0374592 0 0 0 
25 C 1 46.264 52.7881 51.7117 -0.050784 0 0 0 
26 C 1 42.5129 53.8626 48.827 -0.0396973 0 0 0 
27 C 1 43.6341 45.6176 48.5577 -0.0638531 0 0 0 
28 C 1 45.4584 53.7196 51.0898 -0.0589022 0 0 0 
29 C 1 43.5563 54.2511 49.6442 -0.0597289 0 0 0 
30 C 1 41.7204 46.8312 47.5604 -0.0665671 0 0 0 
31 C 1 46.0957 51.4133 51.4957 0.0173391 0 0 0 
32 C 1 42.2704 52.5245 48.5591 -0.0558144 0 0 0 
33 C 1 45.4496 46.9974 49.9005 -0.108535 0 0 0 
34 C 1 45.7526 48.4059 50.3492 -0.0685822 0 0 0 
35 C 1 41.7575 49.4765 48.0299 -0.140232 0 0 0 
36 C 1 44.4138 53.3045 50.2325 0.0188532 0 0 0 
37 C 1 44.1306 46.8144 49.1062 0.0145428 0 0 0 
38 C 1 42.2319 47.9844 48.1186 0.0176225 0 0 0 
39 C 1 45.1584 50.9453 50.5867 -0.0055462 0 0 0 
40 C 1 43.1212 51.5448 49.1276 0.00353425 0 0 0 
41 C 1 44.9582 49.5276 50.1721 0.0126806 0 0 0 
42 C 1 42.8915 50.1515 48.882 0.00427341 0 0 0 
43 C 1 43.3958 47.9449 48.8847 0.00118404 0 0 0 
44 C 1 44.2647 51.8865 49.9952 0.00244529 0 0 0 
45 C 1 43.7741 49.2101 49.368 0.00138283 0 0 0 
46 C 1 49.2465 49.6805 52.4864 0.00671564 0 0 0 
47 O 3 48.2131 50.3074 51.5709 -0.27569 0 0 0 
48 C 1 46.9754 50.5243 52.3906 0.0195095 0 0 0 
49 H 2 51.7109 55.2925 48.9424 0.0348086 0 0 0 
50 H 2 53.3513 54.6449 47.0947 0.0543879 0 0 0 
51 H 2 54.2148 55.2337 48.5187 0.0543803 0 0 0 
52 H 2 59.1829 47.2089 47.8756 0.0410845 0 0 0 
53 H 2 50.929 47.6222 52.0538 0.0467826 0 0 0 
54 H 2 58.92 49.8553 48.2171 0.0627138 0 0 0 
55 H 2 58.1605 49.3666 46.6591 0.06239 0 0 0 
56 H 2 50.9629 53.3632 50.1409 0.0421792 0 0 0 
57 H 2 55.2843 53.1739 47.6385 0.0410027 0 0 0 
58 H 2 57.1205 46.3069 49.1632 0.0476377 0 0 0 
59 H 2 50.1168 51.2127 50.2661 0.123119 0 0 0 
60 H 2 50.9391 51.7178 51.7607 0.0732909 0 0 0 
61 H 2 52.8639 46.4486 51.3095 0.0435307 0 0 0 
62 H 2 55.0229 46.3443 50.2026 0.0483963 0 0 0 
63 H 2 56.5439 51.5695 47.7976 0.0527828 0 0 0 
64 H 2 42.0746 44.7247 47.3877 0.0431581 0 0 0 
65 H 2 47.0338 53.1599 52.3852 0.0497993 0 0 0 
66 H 2 41.8607 54.6072 48.3884 0.0391667 0 0 0 
67 H 2 44.1745 44.6989 48.7067 0.0454689 0 0 0 
68 H 2 45.5973 54.7685 51.2693 0.0447351 0 0 0 
69 H 2 43.7132 55.2985 49.8439 0.0472781 0 0 0 
70 H 2 40.8304 46.8465 46.9695 0.0484577 0 0 0 
71 H 2 41.4593 52.2239 47.9323 0.0441064 0 0 0 
72 H 2 46.2607 46.6506 49.2555 0.0616304 0 0 0 
73 H 2 45.393 46.3457 50.774 0.0527023 0 0 0 
74 H 2 46.7009 48.5098 50.8208 0.097823 0 0 0 
75 H 2 40.8108 49.5935 48.5087 0.071068 0 0 0 
76 H 2 41.8033 49.8138 47.0177 0.071542 0 0 0 
77 H 2 49.3888 50.3157 53.3428 0.0333014 0 0 0 
78 H 2 48.9028 48.7045 52.7588 0.0335869 0 0 0 
79 H 2 47.2369 51.0381 53.2986 0.0307108 0 0 0 
80 H 2 46.5199 49.5884 52.6414 0.0317985 0 0 0 
ITEM: TIMESTEP
2
ITEM: NUMBER OF ATOMS
80
ITEM: BOX BOUNDS pp pp pp
0.0000000000000000e+00 1.0000000000000000e+02
0.0000000000000000e+00 1.0000000000000000e+02
0.0000000000000000e+00 1.0000000000000000e+02
ITEM: ATOMS id element type x y z q vx vy vz 
1 C 1 52.2772 54.4027 48.9479 -0.0418194 0 0 0 
2 C 1 53.5988 54.4349 48.1275 -0.101072 0 0 0 
3 C 1 50.524 49.654 51.6369 0.0324938 0 0 0 
4 C 1 58.3335 47.7506 48.1215 -0.0425424 0 0 0 
5 C 1 51.2443 48.5221 51.5677 -0.0792627 0 0 0 
6 C 1 58.1915 49.2563 47.7193 -0.12606 0 0 0 
7 C 1 51.8882 53.3151 49.607 -0.053403 0 0 0 
8 C 1 54.3936 53.1267 48.1909 -0.0507389 0 0 0 
9 C 1 57.2439 47.2876 48.7982 -0.0582336 0 0 0 
10 C 1 50.9118 50.9482 50.9759 -0.137744 0 0 0 
11 C 1 53.2523 47.3113 50.8275 -0.0583729 0 0 0 
12 C 1 54.4658 47.2423 50.209 -0.0538336 0 0 0 
13 C 1 56.0969 50.7439 48.2751 -0.0746986 0 0 0 
14 C 1 52.4883 48.5172 50.8607 0.0210682 0 0 0 
15 C 1 56.7594 49.5496 48.3267 0.0216629 0 0 0 
16 C 1 56.2873 48.3691 48.9303 0.00232583 0 0 0 
17 C 1 52.6852 52.0859 49.5933 0.00103229 0 0 0 
18 C 1 53.9909 52.0263 48.8752 0.00517649 0 0 0 
19 C 1 52.2265 50.9076 50.2569 0.00676339 0 0 0 
20 C 1 55.0155 48.3865 49.5658 0.0042616 0 0 0 
21 C 1 54.8195 50.821 48.8776 0.004922 0 0 0 
22 C 1 52.9736 49.7395 50.2137 -0.00106 0 0 0 
23 C 1 54.2699 49.6585 49.545 0.000624457 0 0 0 
24 C 1 42.4479 45.6332 47.8064 -0.0377862 0 0 0 
25 C 1 46.2662 52.7993 51.7136 -0.0514102 0 0 0 
26 C 1 42.5099 53.87 48.8254 -0.0391988 0 0 0 
27 C 1 43.6276 45.5988 48.5499 -0.0644664 0 0 0 
28 C 1 45.4706 53.7276 51.1002 -0.0597437 0 0 0 
29 C 1 43.5513 54.2649 49.6414 -0.0613038 0 0 0 
30 C 1 41.7102 46.8164 47.551 -0.06776 0 0 0 
31 C 1 46.0971 51.4214 51.498 0.0186611 0 0 0 
32 C 1 42.2568 52.5348 48.5495 -0.0577432 0 0 0 
33 C 1 45.4732 46.9987 49.9146 -0.110045 0 0 0 
34 C 1 45.7654 48.41 50.356 -0.070048 0 0 0 
35 C 1 41.7378 49.4785 48.017 -0.142694 0 0 0 
36 C 1 44.4165 53.3254 50.2362 0.0183713 0 0 0 
37 C 1 44.1271 46.8008 49.1028 0.0129412 0 0 0 
38 C 1 42.2198 47.9787 48.1106 0.0174948 0 0 0 
39 C 1 45.1609 50.9228 50.5849 -0.00593559 0 0 0 
40 C 1 43.1105 51.5607 49.121 0.00411791 0 0 0 
41 C 1 44.9707 49.5247 50.1804 0.0132572 0 0 0 
42 C 1 42.8727 50.1747 48.875 0.0032951 0 0 0 
43 C 1 43.3972 47.9466 48.8879 0.00151853 0 0 0 
44 C 1 44.2708 51.8829 49.9987 0.00267368 0 0 0 
45 C 1 43.7983 49.1923 49.3848 0.00161088 0 0 0 
46 C 1 49.2634 49.6755 52.481 0.00336105 0 0 0 
47 O 3 48.2122 50.3119 51.559 -0.273895 0 0 0 
48 C 1 46.973 50.5217 52.4001 0.0157902 0 0 0 
49 H 2 51.7104 55.291 48.9434 0.0364992 0 0 0 
50 H 2 53.3528 54.6487 47.0922 0.054998 0 0 0 
51 H 2 54.2164 55.2377 48.5162 0.0549903 0 0 0 
52 H 2 59.1837 47.2061 47.876 0.042453 0 0 0 
53 H 2 50.9278 47.6227 52.0542 0.0477414 0 0 0 
54 H 2 58.925 49.8595 48.2135 0.0648603 0 0 0 
55 H 2 58.1653 49.3708 46.6553 0.0645282 0 0 0 
56 H 2 50.963 53.3621 50.1413 0.0431369 0 0 0 
57 H 2 55.2855 53.1709 47.6393 0.042828 0 0 0 
58 H 2 57.1203 46.3038 49.1643 0.0482054 0 0 0 
59 H 2 50.1152 51.2165 50.2686 0.123521 0 0 0 
60 H 2 50.9354 51.7203 51.7588 0.0731212 0 0 0 
61 H 2 52.8636 46.4485 51.3097 0.0444693 0 0 0 
62 H 2 55.0233 46.3439 50.2025 0.0501393 0 0 0 
63 H 2 56.5436 51.5736 47.7962 0.0532422 0 0 0 
64 H 2 42.0751 44.7255 47.3883 0.0442271 0 0 0 
65 H 2 47.0324 53.1581 52.3844 0.0505957 0 0 0 
66 H 2 41.8613 54.607 48.3888 0.0396162 0 0 0 
67 H 2 44.1741 44.6971 48.7061 0.046129 0 0 0 
68 H 2 45.5974 54.768 51.2694 0.0455782 0 0 0 
69 H 2 43.7132 55.2971 49.8438 0.04843 0 0 0 
70 H 2 40.8281 46.8453 46.9678 0.0495116 0 0 0 
71 H 2 41.458 52.2241 47.9315 0.0452838 0 0 0 
72 H 2 46.2653 46.6472 49.2574 0.0626003 0 0 0 
73 H 2 45.3974 46.3422 50.7762 0.0535574 0 0 0 
74 H 2 46.7009 48.5111 50.8223 0.0999332 0 0 0 
75 H 2 40.8024 49.5971 48.5048 0.0724486 0 0 0 
76 H 2 41.7957 49.8178 47.0122 0.0729324 0 0 0 
77 H 2 49.3864 50.3147 53.3479 0.0339109 0 0 0 
78 H 2 48.9025 48.7019 52.7642 0.0338873 0 0 0 
79 H 2 47.2381 51.0372 53.3024 0.0314533 0 0 0 
80 H 2 46.5189 49.5851 52.643 0.0326186 0 0 0 
ITEM: TIMESTEP
3
ITEM: NUMBER OF ATOMS
80
ITEM: BOX BOUNDS pp pp pp
0.0000000000000000e+00 1.0000000000000000e+02
0.0000000000000000e+00 1.0000000000000000e+02
0.0000000000000000e+00 1.0000000000000000e+02
ITEM: ATOMS id element type x y z q vx vy vz 
1 C 1 52.2704 54.4152 48.9473 -0.0438786 0 0 0 
2 C 1 53.6018 54.4349 48.1259 -0.098944 0 0 0 
3 C 1 50.5181 49.6623 51.641 0.0323854 0 0 0 
4 C 1 58.3407 47.7521 48.1175 -0.0411805 0 0 0 
5 C 1 51.2409 48.5163 51.572 -0.0799609 0 0 0 
6 C 1 58.2112 49.2438 47.7136 -0.12496 0 0 0 
7 C 1 51.8785 53.3133 49.6133 -0.0543935 0 0 0 
8 C 1 54.4063 53.1374 48.179 -0.052711 0 0 0 
9 C 1 57.253 47.2739 48.798 -0.0597812 0 0 0 
10 C 1 50.8982 50.9397 50.9861 -0.13686 0 0 0 
11 C 1 53.2484 47.2987 50.8335 -0.0588682 0 0 0 
12 C 1 54.4633 47.2165 50.2184 -0.0561126 0 0 0 
13 C 1 56.0889 50.7669 48.2717 -0.0754579 0 0 0 
14 C 1 52.484 48.5139 50.8641 0.0211276 0 0 0 
15 C 1 56.757 49.5584 48.325 0.01967 0 0 0 
16 C 1 56.2954 48.3561 48.93 0.00282438 0 0 0 
17 C 1 52.6868 52.1021 49.5873 0.00175812 0 0 0 
18 C 1 53.9929 52.0245 48.875 0.0050992 0 0 0 
19 C 1 52.2218 50.8957 50.2639 0.00575323 0 0 0 
20 C 1 55.0065 48.3843 49.5708 0.00447467 0 0 0 
21 C 1 54.8199 50.8207 48.8775 0.00583644 0 0 0 
22 C 1 52.9751 49.7377 50.2133 -0.000803207 0 0 0 
23 C 1 54.2636 49.6774 49.5421 0.000186344 0 0 0 
24 C 1 42.445 45.6187 47.8016 -0.0391548 0 0 0 
25 C 1 46.2708 52.8091 51.7171 -0.0520022 0 0 0 
26 C 1 42.5041 53.8781 48.8217 -0.0394939 0 0 0 
27 C 1 43.6274 45.5896 48.5479 -0.0643163 0 0 0 
28 C 1 45.4785 53.7366 51.1071 -0.0605842 0 0 0 
29 C 1 43.5492 54.2787 49.6407 -0.0628118 0 0 0 
30 C 1 41.7007 46.8018 47.5422 -0.067916 0 0 0 
31 C 1 46.1062 51.4281 51.5086 0.0174298 0 0 0 
32 C 1 42.2461 52.5417 48.5418 -0.0587681 0 0 0 
33 C 1 45.4857 46.9991 49.9221 -0.109221 0 0 0 
34 C 1 45.7857 48.4054 50.365 -0.0731418 0 0 0 
35 C 1 41.7378 49.4815 48.0172 -0.139185 0 0 0 
36 C 1 44.4193 53.3286 50.2384 0.0184287 0 0 0 
37 C 1 44.1299 46.7789 49.1013 0.0116873 0 0 0 
38 C 1 42.1989 47.9821 48.0982 0.0163557 0 0 0 
39 C 1 45.1575 50.9208 50.5813 -0.00561412 0 0 0 
40 C 1 43.11 51.5667 49.1217 0.00435391 0 0 0 
41 C 1 44.9825 49.5126 50.1874 0.0138943 0 0 0 
42 C 1 42.8551 50.1884 48.8666 0.00324314 0 0 0 
43 C 1 43.4024 47.9428 48.8928 0.00255248 0 0 0 
44 C 1 44.2677 51.8897 49.9965 0.00263836 0 0 0 
45 C 1 43.8024 49.1954 49.3915 0.00139175 0 0 0 
46 C 1 49.2777 49.6769 52.4608 0.00782024 0 0 0 
47 O 3 48.2092 50.3126 51.5642 -0.275528 0 0 0 
48 C 1 46.979 50.5225 52.395 0.0207949 0 0 0 
49 H 2 51.7083 55.2908 48.9448 0.0379953 0 0 0 
50 H 2 53.3546 54.6535 47.0889 0.0543781 0 0 0 
51 H 2 54.2186 55.2428 48.513 0.0543609 0 0 0 
52 H 2 59.1863 47.2009 47.8763 0.0426578 0 0 0 
53 H 2 50.9258 47.6226 52.0554 0.0485103 0 0 0 
54 H 2 58.9319 49.865 48.2087 0.0643832 0 0 0 
55 H 2 58.1719 49.3762 46.6501 0.0640412 0 0 0 
56 H 2 50.9618 53.3606 50.1427 0.0438328 0 0 0 
57 H 2 55.289 53.1672 47.6391 0.0444464 0 0 0 
58 H 2 57.1196 46.2988 49.1663 0.048884 0 0 0 
59 H 2 50.1129 51.221 50.2717 0.122822 0 0 0 
60 H 2 50.9307 51.7233 51.7566 0.072619 0 0 0 
61 H 2 52.863 46.4468 51.3106 0.0455948 0 0 0 
62 H 2 55.0243 46.3409 50.2029 0.0518903 0 0 0 
63 H 2 56.5439 51.58 47.7938 0.0537896 0 0 0 
64 H 2 42.0753 44.725 47.3884 0.0456707 0 0 0 
65 H 2 47.0313 53.1561 52.3841 0.051573 0 0 0 
66 H 2 41.8617 54.6077 48.389 0.0404779 0 0 0 
67 H 2 44.1739 44.6941 48.7054 0.0464324 0 0 0 
68 H 2 45.5984 54.7689 51.2702 0.0464293 0 0 0 
69 H 2 43.7131 55.2972 49.8437 0.0497132 0 0 0 
70 H 2 40.8239 46.843 46.9646 0.0500962 0 0 0 
71 H 2 41.4553 52.2244 47.9295 0.0462232 0 0 0 
72 H 2 46.2706 46.6431 49.2599 0.0626152 0 0 0 
73 H 2 45.4028 46.338 50.7786 0.0536449 0 0 0 
74 H 2 46.7036 48.5123 50.8255 0.102698 0 0 0 
75 H 2 40.7914 49.602 48.4997 0.0704976 0 0 0 
76 H 2 41.7859 49.8233 47.0052 0.0709734 0 0 0 
77 H 2 49.3836 50.313 53.3535 0.0324505 0 0 0 
78 H 2 48.9026 48.6987 52.7706 0.0317573 0 0 0 
79 H 2 47.2394 51.036 53.3077 0.0297591 0 0 0 
80 H 2 46.5173 49.5807 52.6454 0.0307265 0 0 0 
ITEM: TIMESTEP
4
ITEM: NUMBER OF ATOMS
80
ITEM: BOX BOUNDS pp pp pp
0.0000000000000000e+00 1.0000000000000000e+02
0.0000000000000000e+00 1.0000000000000000e+02
0.0000000000000000e+00 1.0000000000000000e+02
ITEM: ATOMS id element type x y z q vx vy vz 
1 C 1 52.2825 54.4243 48.9364 -0.0441191 0 0 0 
2 C 1 53.5952 54.4266 48.1336 -0.0937393 0 0 0 
3 C 1 50.5257 49.6713 51.6345 0.0292095 0 0 0 
4 C 1 58.339 47.7721 48.112 -0.0382081 0 0 0 
5 C 1 51.2445 48.5055 51.5738 -0.0798663 0 0 0 
6 C 1 58.1981 49.2204 47.7274 -0.116225 0 0 0 
7 C 1 51.8768 53.303 49.618 -0.0543878 0 0 0 
8 C 1 54.4079 53.1561 48.1705 -0.053428 0 0 0 
9 C 1 57.2665 47.2663 48.7936 -0.0604076 0 0 0 
10 C 1 50.907 50.9363 50.9822 -0.134051 0 0 0 
11 C 1 53.2411 47.2894 50.8401 -0.0605233 0 0 0 
12 C 1 54.4738 47.2176 50.2126 -0.0557962 0 0 0 
13 C 1 56.0976 50.7674 48.2673 -0.0749443 0 0 0 
14 C 1 52.481 48.5077 50.8675 0.0218447 0 0 0 
15 C 1 56.7707 49.5584 48.3183 0.0193317 0 0 0 
16 C 1 56.2897 48.3621 48.9308 0.00256072 0 0 0 
17 C 1 52.6808 52.0841 49.5972 0.0014957 0 0 0 
18 C 1 53.9749 52.0356 48.8811 0.00547961 0 0 0 
19 C 1 52.2118 50.9251 50.2595 0.00591788 0 0 0 
20 C 1 54.9836 48.4024 49.5765 0.00534242 0 0 0 
21 C 1 54.8149 50.8025 48.8863 0.00562321 0 0 0 
22 C 1 52.9897 49.7383 50.2052 -0.00066317 0 0 0 
23 C 1 54.2727 49.6632 49.5419 -0.000101404 0 0 0 
24 C 1 42.4382 45.61 47.7955 -0.0415362 0 0 0 
25 C 1 46.2781 52.8046 51.7221 -0.052173 0 0 0 
26 C 1 42.4962 53.8844 48.8162 -0.0410314 0 0 0 
27 C 1 43.6364 45.5935 48.5543 -0.0634822 0 0 0 
28 C 1 45.4738 53.7443 51.1038 -0.061194 0 0 0 
29 C 1 43.5535 54.285 49.6444 -0.0630479 0 0 0 
30 C 1 41.7019 46.8085 47.5445 -0.0656665 0 0 0 
31 C 1 46.1081 51.4257 51.5139 0.0136904 0 0 0 
32 C 1 42.244 52.5418 48.54 -0.0577842 0 0 0 
33 C 1 45.4763 46.998 49.9166 -0.105402 0 0 0 
34 C 1 45.805 48.3929 50.3723 -0.0759837 0 0 0 
35 C 1 41.7645 49.4737 48.0337 -0.128738 0 0 0 
36 C 1 44.4216 53.3101 50.2383 0.0193108 0 0 0 
37 C 1 44.1433 46.7577 49.1054 0.0115601 0 0 0 
38 C 1 42.1825 47.9921 48.0887 0.0153413 0 0 0 
39 C 1 45.1539 50.947 50.583 -0.00469856 0 0 0 
40 C 1 43.1193 51.5586 49.129 0.00406885 0 0 0 
41 C 1 44.9933 49.5052 50.1948 0.0139549 0 0 0 
42 C 1 42.8492 50.1796 48.8616 0.00384163 0 0 0 
43 C 1 43.3929 47.9255 48.8848 0.00364761 0 0 0 
44 C 1 44.2644 51.899 49.995 0.00227475 0 0 0 
45 C 1 43.7782 49.2343 49.3842 0.00108377 0 0 0 
46 C 1 49.2562 49.6843 52.452 0.0184507 0 0 0 
47 O 3 48.2034 50.31 51.5867 -0.280871 0 0 0 
48 C 1 46.99 50.5304 52.3715 0.0345499 0 0 0 
49 H 2 51.7035 55.2943 48.9464 0.038033 0 0 0 
50 H 2 53.3567 54.6583 47.0856 0.0523397 0 0 0 
51 H 2 54.2207 55.2478 48.5097 0.052317 0 0 0 
52 H 2 59.1914 47.1938 47.8761 0.041103 0 0 0 
53 H 2 50.923 47.6192 52.0581 0.0490279 0 0 0 
54 H 2 58.9393 49.8703 48.2032 0.0596151 0 0 0 
55 H 2 58.1795 49.3817 46.6449 0.0592671 0 0 0 
56 H 2 50.9575 53.3585 50.1462 0.0436879 0 0 0 
57 H 2 55.297 53.1636 47.6362 0.044514 0 0 0 
58 H 2 57.1194 46.2912 49.1689 0.0488941 0 0 0 
59 H 2 50.1117 51.2262 50.2744 0.120402 0 0 0 
60 H 2 50.9267 51.7271 51.7533 0.0712702 0 0 0 
61 H 2 52.8608 46.4413 51.3134 0.0466774 0 0 0 
62 H 2 55.0272 46.333 50.2038 0.0516356 0 0 0 
63 H 2 56.5449 51.5888 47.7902 0.0534914 0 0 0 
64 H 2 42.0744 44.7205 47.3869 0.0467577 0 0 0 
65 H 2 47.0319 53.1548 52.3851 0.0521879 0 0 0 
66 H 2 41.8603 54.6107 48.3881 0.041591 0 0 0 
67 H 2 44.1744 44.6891 48.7048 0.0463709 0 0 0 
68 H 2 45.6007 54.7732 51.2723 0.0468378 0 0 0 
69 H 2 43.713 55.3015 49.8439 0.0502669 0 0 0 
70 H 2 40.8178 46.8394 46.9598 0.049047 0 0 0 
71 H 2 41.45 52.2249 47.9257 0.0460584 0 0 0 
72 H 2 46.2758 46.6389 49.2629 0.061162 0 0 0 
73 H 2 45.4085 46.334 50.7808 0.0524303 0 0 0 
74 H 2 46.7117 48.5139 50.8312 0.104346 0 0 0 
75 H 2 40.7807 49.6071 48.4939 0.0647277 0 0 0 
76 H 2 41.7755 49.8287 46.9988 0.0651728 0 0 0 
77 H 2 49.3804 50.3112 53.3573 0.0296969 0 0 0 
78 H 2 48.9038 48.6962 52.7758 0.0280907 0 0 0 
79 H 2 47.2406 51.0345 53.3128 0.0259683 0 0 0 
80 H 2 46.5156 49.577 52.6477 0.0265019 0 0 0 
ITEM: TIMESTEP
5
ITEM: NUMBER OF ATOMS
80
ITEM: BOX BOUNDS pp pp pp
0.0000000000000000e+00 1.0000000000000000e+02
0.0000000000000000e+00 1.0000000000000000e+02
0.0000000000000000e+00 1.0000000000000000e+02
ITEM: ATOMS id element type x y z q vx vy vz 
1 C 1 52.2834 54.4211 48.9372 -0.0429928 0 0 0 
2 C 1 53.5906 54.4326 48.134 -0.0943234 0 0 0 
3 C 1 50.5301 49.6701 51.6325 0.0267114 0 0 0 
4 C 1 58.3393 47.7641 48.1143 -0.0396675 0 0 0 
5 C 1 51.251 48.5009 51.5721 -0.0787743 0 0 0 
6 C 1 58.1879 49.226 47.7306 -0.114236 0 0 0 
7 C 1 51.8813 53.3006 49.6161 -0.0534956 0 0 0 
8 C 1 54.4081 53.1471 48.1742 -0.052812 0 0 0 
9 C 1 57.2663 47.2735 48.7914 -0.0578956 0 0 0 
10 C 1 50.9055 50.9403 50.9816 -0.133678 0 0 0 
11 C 1 53.2373 47.2895 50.8421 -0.0607006 0 0 0 
12 C 1 54.4782 47.2273 50.2073 -0.0543071 0 0 0 
13 C 1 56.1041 50.7616 48.2658 -0.073786 0 0 0 
14 C 1 52.4893 48.5189 50.8595 0.0222817 0 0 0 
15 C 1 56.7752 49.5524 48.318 0.0202368 0 0 0 
16 C 1 56.2865 48.3671 48.9307 0.00194022 0 0 0 
17 C 1 52.6881 52.0858 49.5926 0.00132667 0 0 0 
18 C 1 53.9652 52.0448 48.8829 0.00600052 0 0 0 
19 C 1 52.2151 50.928 50.2566 0.00596563 0 0 0 
20 C 1 54.9791 48.4023 49.5788 0.0055254 0 0 0 
21 C 1 54.8093 50.8092 48.887 0.00489682 0 0 0 
22 C 1 52.9965 49.7209 50.207 -0.00101759 0 0 0 
23 C 1 54.2623 49.651 49.5515 9.5504e-05 0 0 0 
24 C 1 42.4341 45.6115 47.793 -0.0414512 0 0 0 
25 C 1 46.2804 52.8058 51.7236 -0.0524412 0 0 0 
26 C 1 42.4935 53.8885 48.8145 -0.0424658 0 0 0 
27 C 1 43.6399 45.5927 48.5564 -0.0636229 0 0 0 
28 C 1 45.4712 53.7444 51.1016 -0.060415 0 0 0 
29 C 1 43.5572 54.2829 49.6471 -0.0619049 0 0 0 
30 C 1 41.7045 46.8118 47.5471 -0.064396 0 0 0 
31 C 1 46.0969 51.4282 51.5055 0.0124747 0 0 0 
32 C 1 42.2519 52.5321 48.5451 -0.0558619 0 0 0 
33 C 1 45.4669 46.9896 49.9096 -0.104893 0 0 0 
34 C 1 45.8093 48.4002 50.3762 -0.0762408 0 0 0 
35 C 1 41.7702 49.4743 48.0375 -0.125711 0 0 0 
36 C 1 44.4214 53.3036 50.2374 0.0193431 0 0 0 
37 C 1 44.1499 46.7553 49.1088 0.0123793 0 0 0 
38 C 1 42.1861 47.9889 48.0906 0.0150835 0 0 0 
39 C 1 45.1488 50.9514 50.5796 -0.00465037 0 0 0 
40 C 1 43.1218 51.5528 49.1312 0.00399133 0 0 0 
41 C 1 44.9946 49.5092 50.1967 0.0142717 0 0 0 
42 C 1 42.8602 50.1808 48.8686 0.00397718 0 0 0 
43 C 1 43.3831 47.917 48.8776 0.00361837 0 0 0 
44 C 1 44.26 51.8947 49.9917 0.00217448 0 0 0 
45 C 1 43.7681 49.2594 49.3826 0.000940835 0 0 0 
46 C 1 49.2367 49.6911 52.4478 0.0275383 0 0 0 
47 O 3 48.2064 50.3063 51.6001 -0.284132 0 0 0 
48 C 1 46.9999 50.5277 52.3687 0.0392109 0 0 0 
49 H 2 51.6992 55.2987 48.9474 0.0373617 0 0 0 
50 H 2 53.3583 54.662 47.0834 0.0524566 0 0 0 
51 H 2 54.2222 55.2516 48.507 0.0524261 0 0 0 
52 H 2 59.1955 47.1896 47.8754 0.0413739 0 0 0 
53 H 2 50.9206 47.6147 52.061 0.0485926 0 0 0 
54 H 2 58.9443 49.8728 48.1987 0.0585671 0 0 0 
55 H 2 58.1854 49.3848 46.6423 0.0582212 0 0 0 
56 H 2 50.9533 53.3564 50.1495 0.0427172 0 0 0 
57 H 2 55.305 53.1605 47.6329 0.0436758 0 0 0 
58 H 2 57.1208 46.2841 49.1705 0.0474305 0 0 0 
59 H 2 50.1097 51.2306 50.276 0.119934 0 0 0 
60 H 2 50.9234 51.7308 51.7515 0.0713589 0 0 0 
61 H 2 52.8579 46.4348 51.3169 0.0464723 0 0 0 
62 H 2 55.0309 46.3253 50.2042 0.0504146 0 0 0 
63 H 2 56.5458 51.5966 47.7871 0.0527097 0 0 0 
64 H 2 42.0727 44.7143 47.3847 0.046382 0 0 0 
65 H 2 47.0338 53.1542 52.3872 0.0523604 0 0 0 
66 H 2 41.8576 54.6151 48.3863 0.0419647 0 0 0 
67 H 2 44.1753 44.6844 48.7045 0.0464956 0 0 0 
68 H 2 45.6028 54.7784 51.2743 0.0463269 0 0 0 
69 H 2 43.7134 55.3071 49.8445 0.0496797 0 0 0 
70 H 2 40.813 46.8362 46.956 0.0481875 0 0 0 
71 H 2 41.4451 52.2252 47.9222 0.0448645 0 0 0 
72 H 2 46.2795 46.6356 49.2655 0.0607636 0 0 0 
73 H 2 45.413 46.3311 50.7822 0.0521428 0 0 0 
74 H 2 46.7209 48.5158 50.8372 0.103983 0 0 0 
75 H 2 40.7748 49.6106 48.4891 0.0631771 0 0 0 
76 H 2 41.7682 49.8321 46.996 0.0636195 0 0 0 
77 H 2 49.3775 50.3089 53.3589 0.0272278 0 0 0 
78 H 2 48.9054 48.6952 52.7789 0.0249685 0 0 0 
79 H 2 47.2414 51.0331 53.3152 0.0248341 0 0 0 
80 H 2 46.5152 49.5759 52.6482 0.025199 0 0 0 
ITEM: TIMESTEP
6
ITEM: NUMBER OF ATOMS
80
ITEM: BOX BOUNDS pp pp pp
0.0000000000000000e+00 1.0000000000000000e+02
0.0000000000000000e+00 1.0000000000000000e+02
0.0000000000000000e+00 1.0000000000000000e+02
ITEM: ATOMS id element type x y z q vx vy vz 
1 C 1 52.2829 54.4183 48.9386 -0.0423069 0 0 0 
2 C 1 53.5889 54.4361 48.1337 -0.0948929 0 0 0 
3 C 1 50.5323 49.6694 51.6317 0.0257663 0 0 0 
4 C 1 58.3406 47.7571 48.1158 -0.0406202 0 0 0 
5 C 1 51.2504 48.5041 51.572 -0.0777969 0 0 0 
6 C 1 58.1861 49.2305 47.73 -0.114014 0 0 0 
7 C 1 51.8841 53.3 49.6145 -0.0528775 0 0 0 
8 C 1 54.4074 53.1412 48.1771 -0.0521602 0 0 0 
9 C 1 57.266 47.277 48.7904 -0.056537 0 0 0 
10 C 1 50.9075 50.9377 50.9814 -0.132439 0 0 0 
11 C 1 53.2366 47.2892 50.8425 -0.0604538 0 0 0 
12 C 1 54.4778 47.2298 50.2067 -0.0535226 0 0 0 
13 C 1 56.1031 50.7615 48.2663 -0.0729734 0 0 0 
14 C 1 52.4928 48.5213 50.8569 0.022079 0 0 0 
15 C 1 56.7773 49.5511 48.3173 0.0204134 0 0 0 
16 C 1 56.2858 48.3664 48.9312 0.0017022 0 0 0 
17 C 1 52.6908 52.0843 49.5917 0.00113373 0 0 0 
18 C 1 53.9623 52.048 48.8832 0.00621194 0 0 0 
19 C 1 52.2141 50.9312 50.256 0.00594364 0 0 0 
20 C 1 54.978 48.3993 49.5802 0.00547492 0 0 0 
21 C 1 54.8066 50.8162 48.886 0.0046544 0 0 0 
22 C 1 52.9949 49.7168 50.2092 -0.000991197 0 0 0 
23 C 1 54.2588 49.6495 49.5537 0.000159918 0 0 0 
24 C 1 42.4326 45.6128 47.7923 -0.040948 0 0 0 
25 C 1 46.2811 52.8058 51.724 -0.0525074 0 0 0 
26 C 1 42.4926 53.8903 48.814 -0.0429678 0 0 0 
27 C 1 43.6406 45.5909 48.5565 -0.0638097 0 0 0 
28 C 1 45.4704 53.7443 51.101 -0.0599551 0 0 0 
29 C 1 43.5585 54.2815 49.648 -0.0612147 0 0 0 
30 C 1 41.7046 46.8099 47.5468 -0.0640687 0 0 0 
31 C 1 46.0905 51.4304 51.5008 0.0122563 0 0 0 
32 C 1 42.2555 52.5283 48.5476 -0.0549692 0 0 0 
33 C 1 45.4626 46.9854 49.9064 -0.104784 0 0 0 
34 C 1 45.8099 48.4053 50.3778 -0.0758301 0 0 0 
35 C 1 41.767 49.4769 48.0358 -0.125649 0 0 0 
36 C 1 44.4216 53.3055 50.2376 0.0192122 0 0 0 
37 C 1 44.1528 46.7557 49.1106 0.0128036 0 0 0 
38 C 1 42.1893 47.9854 48.0922 0.0150218 0 0 0 
39 C 1 45.1495 50.949 50.58 -0.00474185 0 0 0 
40 C 1 43.12 51.5537 49.1303 0.00399816 0 0 0 
41 C 1 44.9931 49.5108 50.196 0.0144359 0 0 0 
42 C 1 42.8672 50.181 48.8735 0.00402186 0 0 0 
43 C 1 43.3811 47.9148 48.8764 0.00347802 0 0 0 
44 C 1 44.2586 51.8917 49.9904 0.00219327 0 0 0 
45 C 1 43.7673 49.2673 49.3839 0.000840168 0 0 0 
46 C 1 49.2323 49.6941 52.4434 0.0315691 0 0 0 
47 O 3 48.2094 50.3045 51.605 -0.285322 0 0 0 
48 C 1 47.0025 50.5267 52.3687 0.0400273 0 0 0 
49 H 2 51.6965 55.3014 48.948 0.0369333 0 0 0 
50 H 2 53.3592 54.6643 47.0821 0.0525888 0 0 0 
51 H 2 54.2231 55.2539 48.5054 0.0525544 0 0 0 
52 H 2 59.198 47.1871 47.8749 0.0416874 0 0 0 
53 H 2 50.919 47.6121 52.0627 0.0479857 0 0 0 
54 H 2 58.9472 49.8742 48.1959 0.0584676 0 0 0 
55 H 2 58.189 49.3867 46.6409 0.0581234 0 0 0 
56 H 2 50.9508 53.3549 50.1516 0.0421476 0 0 0 
57 H 2 55.3099 53.1584 47.631 0.0430502 0 0 0 
58 H 2 57.1219 46.2799 49.1713 0.0466611 0 0 0 
59 H 2 50.109 51.2329 50.2774 0.11916 0 0 0 
60 H 2 50.9214 51.7324 51.75 0.0707656 0 0 0 
61 H 2 52.856 46.4307 51.3192 0.0461642 0 0 0 
62 H 2 55.0333 46.3206 50.2044 0.0497878 0 0 0 
63 H 2 56.5463 51.6016 47.7851 0.0521517 0 0 0 
64 H 2 42.0716 44.7103 47.3833 0.0460039 0 0 0 
65 H 2 47.0352 53.1538 52.3886 0.0523613 0 0 0 
66 H 2 41.8557 54.618 48.385 0.0420051 0 0 0 
67 H 2 44.176 44.6815 48.7042 0.0465904 0 0 0 
68 H 2 45.6041 54.7817 51.2755 0.0460029 0 0 0 
69 H 2 43.7136 55.3107 49.8449 0.0492667 0 0 0 
70 H 2 40.81 46.8341 46.9536 0.0479164 0 0 0 
71 H 2 41.4422 52.2254 47.9201 0.0442335 0 0 0 
72 H 2 46.2817 46.6335 49.2671 0.0605782 0 0 0 
73 H 2 45.4158 46.3293 50.7829 0.0519691 0 0 0 
74 H 2 46.727 48.5171 50.8411 0.103432 0 0 0 
75 H 2 40.7713 49.6128 48.486 0.0632031 0 0 0 
76 H 2 41.7637 49.8343 46.9944 0.0636449 0 0 0 
77 H 2 49.3758 50.3072 53.3594 0.0261901 0 0 0 
78 H 2 48.9065 48.695 52.7807 0.02363 0 0 0 
79 H 2 47.2419 51.0321 53.3164 0.0246998 0 0 0 
80 H 2 46.5151 49.5755 52.6483 0.024999 0 0 0 
ITEM: TIMESTEP
7
ITEM: NUMBER OF ATOMS
80
ITEM: BOX BOUNDS pp pp pp
0.0000000000000000e+00 1.0000000000000000e+02
0.0000000000000000e+00 1.0000000000000000e+02
0.0000000000000000e+00 1.0000000000000000e+02
ITEM: ATOMS id element type x y z q vx vy vz 
1 C 1 52.2826 54.4178 48.939 -0.0422691 0 0 0 
2 C 1 53.5896 54.4357 48.1334 -0.0948607 0 0 0 
3 C 1 50.5325 49.6695 51.6316 0.0261604 0 0 0 
4 C 1 58.3414 47.7562 48.1158 -0.0406302 0 0 0 
5 C 1 51.2476 48.5079 51.5725 -0.0775796 0 0 0 
6 C 1 58.1885 49.2308 47.7287 -0.114384 0 0 0 
7 C 1 51.884 53.3007 49.6143 -0.0528223 0 0 0 
8 C 1 54.4067 53.1418 48.1772 -0.0519662 0 0 0 
9 C 1 57.266 47.2764 48.7906 -0.0566084 0 0 0 
10 C 1 50.9095 50.9345 50.9814 -0.131775 0 0 0 
11 C 1 53.2375 47.2889 50.8422 -0.0602275 0 0 0 
12 C 1 54.476 47.2278 50.2083 -0.0535225 0 0 0 
13 C 1 56.1 50.7634 48.2672 -0.0728042 0 0 0 
14 C 1 52.492 48.5187 50.8581 0.0218003 0 0 0 
15 C 1 56.7772 49.5523 48.317 0.0201512 0 0 0 
16 C 1 56.2862 48.3645 48.9316 0.00179224 0 0 0 
17 C 1 52.6894 52.0827 49.5931 0.00106126 0 0 0 
18 C 1 53.9643 52.0469 48.8825 0.00613763 0 0 0 
19 C 1 52.2123 50.9317 50.2568 0.00592916 0 0 0 
20 C 1 54.9792 48.3972 49.5803 0.00537722 0 0 0 
21 C 1 54.8074 50.8181 48.885 0.00475188 0 0 0 
22 C 1 52.991 49.7206 50.21 -0.000848966 0 0 0 
23 C 1 54.2604 49.653 49.5518 0.00014053 0 0 0 
24 C 1 42.4333 45.613 47.7928 -0.0406848 0 0 0 
25 C 1 46.2808 52.8053 51.7237 -0.0524146 0 0 0 
26 C 1 42.4931 53.8899 48.8144 -0.0427089 0 0 0 
27 C 1 43.6396 45.5897 48.5556 -0.0638183 0 0 0 
28 C 1 45.471 53.7443 51.1014 -0.0599509 0 0 0 
29 C 1 43.5578 54.2816 49.6475 -0.0612092 0 0 0 